ITEM: TIMESTEP
0
ITEM: NUMBER OF ATOMS
10368
ITEM: BOX BOUNDS pp pp pp
0.0000000000000000e+00 4.6936999999999998e+01
0.0000000000000000e+00 4.4121000000000002e+01
0.0000000000000000e+00 5.4219000000000001e+01
ITEM: ATOMS id type xs ys zs
1 2 0.0287686 0.0414762 0.0612374
2 1 0.00973292 0.0337452 0.0619709
3 1 0.0376722 0.0340332 0.0759201
4 2 0.111213 0.103119 0.0195509
5 1 0.111626 0.081446 0.0202677
6 1 0.121021 0.109503 0.0341318
12 1 0.121414 0.1092 0.0897101
17 1 0.0473418 0.116695 0.0896993
19 2 0.111845 0.0405688 0.0197335
20 1 0.0927067 0.033127 0.0204382
21 1 0.120664 0.0328508 0.0343605
28 2 0.028118 0.104047 0.0627159
29 1 0.0379462 0.110281 0.0481026
30 1 0.0283884 0.0823679 0.0620754
31 2 0.0560375 0.124427 0.0212078
32 1 0.0471941 0.117198 0.00642741
33 1 0.0750185 0.116536 0.0205392
34 2 0.0568881 0.0185827 0.0206612
35 1 0.0468201 0.0263302 0.00666258
36 1 0.0466564 0.0262933 0.0345842
7 2 0.138691 0.122148 0.0617863
9 1 0.15829 0.116157 0.0619717
37 2 0.138269 0.0179041 0.0614166
38 1 0.129335 0.0256195 0.0759919
39 1 0.157235 0.0258484 0.0619828
49 2 0.193668 0.0414734 0.0621553
50 1 0.203854 0.0337979 0.0481944
51 1 0.203854 0.0337979 0.0761163
66 1 0.214112 0.116678 0.0896278
76 2 0.194937 0.104047 0.0627159
77 1 0.204766 0.110281 0.0481026
78 1 0.195208 0.0823679 0.0620754
79 2 0.222654 0.124424 0.0212088
80 1 0.241657 0.116597 0.020526
81 1 0.213824 0.117187 0.00642489
82 2 0.222849 0.0201825 0.0215755
84 1 0.213313 0.0266954 0.00689801
52 2 0.278031 0.103122 0.0195481
53 1 0.287846 0.109452 0.0341408
54 1 0.278257 0.081448 0.0203046
55 2 0.30573 0.123757 0.061039
56 1 0.296961 0.116194 0.0757417
57 1 0.324918 0.11647 0.061818
67 2 0.278469 0.0405759 0.021397
68 1 0.287157 0.0330752 0.0066371
69 1 0.259365 0.0330174 0.0208078
72 1 0.287178 0.0326738 0.0900286
85 2 0.305943 0.0197183 0.0630788
87 1 0.296372 0.0259836 0.0483468
97 2 0.362183 0.0414815 0.0629017
98 1 0.370887 0.0336987 0.0482461
99 1 0.343128 0.0337697 0.0624643
124 2 0.361544 0.104047 0.0627159
125 1 0.361814 0.0823679 0.0620754
126 1 0.371372 0.110281 0.0481026
100 2 0.445705 0.101311 0.0195494
101 1 0.426739 0.109255 0.0201155
102 1 0.454639 0.109026 0.0341247
103 2 0.472544 0.12376 0.0610378
104 1 0.491713 0.11643 0.0618839
105 1 0.463682 0.116187 0.0756954
111 1 0.379858 0.0269625 0.0899851
113 1 0.380711 0.11673 0.0896193
115 2 0.443998 0.0387618 0.0197333
116 1 0.453812 0.0324164 0.0343225
117 1 0.444642 0.0604349 0.0202948
127 2 0.39052 0.122622 0.0212052
128 1 0.380767 0.116505 0.00652129
130 2 0.388396 0.0185919 0.0215717
131 1 0.379635 0.0262328 0.00689228
132 1 0.407541 0.0260184 0.0208913
133 2 0.472761 0.0197079 0.0614183
134 1 0.46293 0.0259359 0.0760322
289 2 0.0277015 0.206487 0.0612403
290 1 0.0282937 0.228157 0.0619072
291 1 0.0372506 0.200063 0.0759377
293 1 0.111668 0.248035 0.0206132
307 2 0.111845 0.207156 0.0197335
308 1 0.0927067 0.199714 0.0204382
309 1 0.120664 0.199438 0.0343605
322 2 0.0562395 0.186977 0.0197442
323 1 0.0560784 0.165298 0.0204015
324 1 0.0464964 0.193174 0.0344108
8 1 0.139226 0.143834 0.0619733
325 2 0.138269 0.184496 0.0614224
326 1 0.129328 0.192384 0.075933
327 1 0.157246 0.192414 0.0619497
337 2 0.194308 0.206487 0.0612403
338 1 0.1949 0.228157 0.0619072
339 1 0.203857 0.200063 0.0759377
370 2 0.222849 0.186976 0.0197393
371 1 0.213269 0.193192 0.0344809
372 1 0.222679 0.165297 0.0204089
342 1 0.278257 0.248035 0.0203046
355 2 0.278469 0.207163 0.021397
356 1 0.287157 0.199663 0.0066371
357 1 0.259365 0.199605 0.0208078
359 1 0.287194 0.199369 0.0900032
373 2 0.305943 0.186306 0.0630788
374 1 0.305911 0.164632 0.0622947
375 1 0.296372 0.192571 0.0483468
385 2 0.362622 0.206483 0.0621553
386 1 0.361733 0.228157 0.0621553
387 1 0.343122 0.200133 0.0621553
129 1 0.389896 0.144302 0.0208567
390 1 0.444864 0.248035 0.0203046
398 1 0.380062 0.193349 0.0898141
403 2 0.445271 0.207156 0.0197335
404 1 0.426132 0.199714 0.0204382
405 1 0.45409 0.199438 0.0343605
418 2 0.390097 0.185173 0.020657
419 1 0.380086 0.193104 0.0346179
420 1 0.380086 0.193104 0.00669599
421 2 0.472763 0.186302 0.0614153
422 1 0.462948 0.192632 0.076008
423 1 0.472536 0.164628 0.0621718
292 2 0.11121 0.269711 0.0212147
294 1 0.121031 0.276002 0.00661373
300 1 0.121414 0.275788 0.0897101
306 1 0.0473418 0.283497 0.0896989
316 2 0.0293944 0.269034 0.06271
317 1 0.038213 0.276752 0.048083
318 1 0.0102558 0.276476 0.0620052
319 2 0.0555905 0.289417 0.0202879
320 1 0.0751222 0.283178 0.0202892
321 1 0.0563708 0.311095 0.020474
577 2 0.0293922 0.373281 0.0621553
579 1 0.00994192 0.36676 0.0621553
590 1 0.0462703 0.359939 0.0899968
595 2 0.111853 0.373748 0.021398
596 1 0.120527 0.36624 0.00663468
597 1 0.0927284 0.36625 0.0207945
600 1 0.120406 0.366045 0.0899579
610 2 0.0568768 0.351766 0.0206611
611 1 0.0469102 0.359662 0.00666304
612 1 0.0467458 0.359625 0.0345846
295 2 0.1404 0.28876 0.0627073
296 1 0.130596 0.282359 0.0481294
297 1 0.139571 0.310427 0.0621857
353 1 0.214165 0.283801 0.0894934
364 2 0.196001 0.269034 0.06271
365 1 0.176862 0.276476 0.0620052
366 1 0.204819 0.276752 0.048083
367 2 0.222648 0.291015 0.0212114
368 1 0.241713 0.283364 0.0204928
369 1 0.21386 0.283754 0.00641682
613 2 0.138264 0.351297 0.063087
614 1 0.157281 0.359091 0.0624445
615 1 0.129381 0.358862 0.0484362
625 2 0.194306 0.373281 0.0630732
626 1 0.203841 0.366757 0.0483984
639 1 0.213201 0.360321 0.0899053
658 2 0.222848 0.353564 0.0215725
659 1 0.213295 0.359977 0.00687345
660 1 0.222674 0.331896 0.0207137
340 2 0.278031 0.269709 0.0195481
341 1 0.287846 0.276039 0.0341408
343 2 0.307008 0.288756 0.0610472
344 1 0.297195 0.282411 0.0756364
345 1 0.306365 0.310429 0.0616087
412 2 0.362613 0.269031 0.0627111
413 1 0.343492 0.276516 0.06194
414 1 0.371524 0.276759 0.0481296
643 2 0.278469 0.373751 0.021397
644 1 0.259365 0.366192 0.0208078
645 1 0.287157 0.36625 0.0066371
661 2 0.306592 0.351298 0.0621553
662 1 0.296479 0.359081 0.0761163
663 1 0.296479 0.359081 0.0481944
673 2 0.362626 0.373277 0.0621553
674 1 0.343155 0.366827 0.0621553
388 2 0.444637 0.269709 0.0195481
389 1 0.454452 0.276039 0.0341408
391 2 0.471915 0.288761 0.0617866
392 1 0.472459 0.310447 0.0619693
393 1 0.491511 0.282761 0.0619701
395 1 0.454252 0.275852 0.0894849
401 1 0.380561 0.283736 0.0896242
415 2 0.388824 0.289421 0.020288
416 1 0.389675 0.311096 0.0204737
417 1 0.408336 0.28311 0.0202881
687 1 0.379858 0.360353 0.0899855
691 2 0.445278 0.373748 0.021398
692 1 0.426154 0.36625 0.0207945
693 1 0.453953 0.36624 0.00663468
695 1 0.45409 0.366479 0.0899502
706 2 0.390097 0.35176 0.020657
707 1 0.380086 0.359691 0.0346179
708 1 0.380086 0.359691 0.00669599
709 2 0.471689 0.351297 0.063087
710 1 0.462806 0.358862 0.0484362
711 1 0.490707 0.359091 0.0624445
578 1 0.028335 0.394947 0.0621553
580 2 0.112922 0.436308 0.0204726
581 1 0.093484 0.442867 0.0202877
582 1 0.111827 0.414645 0.0204723
587 1 0.121066 0.442685 0.0895083
604 2 0.02769 0.435842 0.0619642
605 1 0.0380155 0.443394 0.0758929
606 1 0.0379364 0.443336 0.0479711
607 2 0.0573053 0.456026 0.0212023
608 1 0.0475616 0.449855 0.00652913
609 1 0.0564961 0.477701 0.0208937
583 2 0.1404 0.455347 0.0627073
584 1 0.130596 0.448947 0.0481294
585 1 0.139571 0.477014 0.0621857
627 1 0.194948 0.394946 0.0623324
642 1 0.214112 0.45008 0.0896278
652 2 0.196006 0.43584 0.0627183
653 1 0.204775 0.443403 0.0480156
654 1 0.176819 0.443127 0.0619393
655 2 0.222208 0.45603 0.0202882
656 1 0.222997 0.477708 0.0204718
657 1 0.241738 0.449783 0.0202875
628 2 0.278031 0.436309 0.019548
629 1 0.278255 0.414635 0.0203045
630 1 0.287846 0.442638 0.0341411
631 2 0.307008 0.455343 0.0610472
632 1 0.306365 0.477017 0.0616087
633 1 0.297195 0.448998 0.0756364
675 1 0.361638 0.394946 0.0621553
700 2 0.362622 0.435843 0.0610466
701 1 0.343446 0.443156 0.061868
702 1 0.371427 0.443339 0.0757558
676 2 0.444634 0.436315 0.0212176
677 1 0.444904 0.414636 0.020577
678 1 0.454462 0.442549 0.0066042
679 2 0.474254 0.457153 0.0617902
680 1 0.463996 0.449423 0.0478884
681 1 0.46404 0.449683 0.0758096
703 2 0.389457 0.457837 0.0195436
704 1 0.380531 0.450297 0.034183
705 1 0.408412 0.449868 0.020149
995 1 0.389459 0.498496 0.0204733
999 1 0.472547 0.49803 0.0623388
865 2 0.0276995 0.539882 0.0630732
866 1 0.0283406 0.561547 0.0623315
867 1 0.0372347 0.533357 0.0483986
868 2 0.112482 0.601303 0.0195483
869 1 0.0934942 0.609184 0.0201298
870 1 0.121402 0.609027 0.0341272
878 1 0.0467334 0.526677 0.0898385
883 2 0.110782 0.538751 0.0197282
884 1 0.111436 0.560424 0.0203044
885 1 0.120433 0.532388 0.0343936
892 2 0.0276957 0.602433 0.0619672
893 1 0.0379095 0.609903 0.0479478
894 1 0.0379532 0.610163 0.0758689
895 2 0.0573077 0.622821 0.021205
897 1 0.0475756 0.616549 0.00655417
898 2 0.0551835 0.518581 0.0215717
899 1 0.0743286 0.526007 0.0208913
900 1 0.046422 0.526221 0.00689228
871 2 0.140402 0.622145 0.0610473
872 1 0.130589 0.615801 0.0756368
901 2 0.138269 0.517893 0.0614166
902 1 0.157235 0.525837 0.0619828
903 1 0.129335 0.525608 0.0759919
913 2 0.194306 0.539882 0.0630732
914 1 0.194947 0.561547 0.0623315
915 1 0.203841 0.533357 0.0483986
927 1 0.212975 0.526747 0.0899502
930 1 0.214112 0.616667 0.0896278
940 2 0.196006 0.602428 0.0627183
941 1 0.176819 0.609715 0.0619393
942 1 0.204775 0.609991 0.0480156
943 2 0.223916 0.622817 0.021208
944 1 0.214176 0.6166 0.00654576
946 2 0.22179 0.518581 0.0215717
947 1 0.240935 0.526007 0.0208913
948 1 0.213028 0.526221 0.00689228
916 2 0.279099 0.6013 0.0212113
917 1 0.260133 0.609244 0.0206451
918 1 0.288033 0.609015 0.00663596
919 2 0.307006 0.622148 0.0627071
921 1 0.297202 0.615749 0.0481291
924 1 0.288044 0.609178 0.0897128
931 2 0.277392 0.53875 0.0197333
932 1 0.278036 0.560424 0.0202948
933 1 0.287205 0.532405 0.0343225
949 2 0.304876 0.517893 0.0614166
950 1 0.323841 0.525837 0.0619828
951 1 0.295942 0.525608 0.0759919
961 2 0.360917 0.539887 0.0612453
962 1 0.370629 0.533481 0.0758679
963 1 0.361499 0.561558 0.0618983
988 2 0.362618 0.602425 0.0627196
989 1 0.343449 0.609755 0.0618734
990 1 0.37148 0.609998 0.048062
964 2 0.445705 0.6013 0.0212113
965 1 0.454639 0.609015 0.00663596
966 1 0.426739 0.609244 0.0206451
967 2 0.473615 0.622145 0.06271
969 1 0.463801 0.615801 0.0481205
972 1 0.454252 0.609253 0.0894849
977 1 0.380523 0.617158 0.0896327
979 2 0.445702 0.538749 0.0206569
980 1 0.426133 0.532647 0.0206569
981 1 0.445056 0.560432 0.0204731
984 1 0.453784 0.532662 0.0900286
991 2 0.390522 0.622817 0.021208
992 1 0.380782 0.6166 0.00654576
994 2 0.389667 0.520171 0.0197412
996 1 0.379939 0.526468 0.0343871
997 2 0.472757 0.519705 0.0630711
998 1 0.46303 0.526004 0.0484256
896 1 0.0564444 0.644491 0.0208255
1153 2 0.0293884 0.706475 0.0621553
1154 1 0.0284299 0.728146 0.0621553
1155 1 0.00990855 0.700055 0.0621553
1167 1 0.0467601 0.693243 0.0898147
1171 2 0.112482 0.705556 0.020657
1172 1 0.0929417 0.699348 0.0206579
1173 1 0.111732 0.727235 0.0204716
1175 1 0.12067 0.6997 0.0900095
1186 2 0.0568768 0.685167 0.0206611
1187 1 0.0467458 0.693026 0.0345846
1188 1 0.0469102 0.693063 0.00666304
873 1 0.139757 0.643818 0.0616067
945 1 0.22324 0.644494 0.0207878
1189 2 0.138269 0.68448 0.0630785
1190 1 0.157235 0.692424 0.0625123
1191 1 0.129335 0.692195 0.0485032
1201 2 0.194308 0.706476 0.0630703
1202 1 0.203857 0.700052 0.048373
1203 1 0.1949 0.728146 0.0624035
1215 1 0.213493 0.693309 0.0897811
1234 2 0.22179 0.685172 0.0215661
1235 1 0.240945 0.692574 0.0209223
1236 1 0.213022 0.692988 0.00695061
920 1 0.306175 0.643816 0.0621883
1205 1 0.27867 0.748034 0.0204725
1219 2 0.276753 0.707147 0.0206532
1220 1 0.286967 0.699677 0.00663385
1221 1 0.28701 0.699417 0.034555
1237 2 0.304876 0.684485 0.0614224
1238 1 0.323852 0.692403 0.0619497
1239 1 0.295934 0.692373 0.075933
1249 2 0.360917 0.706475 0.0630654
1250 1 0.361499 0.728146 0.0624124
1251 1 0.370629 0.700069 0.0484428
968 1 0.47297 0.643818 0.0621506
993 1 0.389846 0.644494 0.0207878
1253 1 0.444861 0.748037 0.0203045
1262 1 0.379858 0.693754 0.0899855
1267 2 0.443564 0.707153 0.0206575
1268 1 0.453661 0.699611 0.00659977
1269 1 0.453868 0.699389 0.0345206
1282 2 0.388396 0.685172 0.0215661
1283 1 0.407551 0.692574 0.0209223
1284 1 0.379628 0.692988 0.00695061
1285 2 0.471695 0.684485 0.0614224
1286 1 0.490672 0.692403 0.0619497
1287 1 0.462754 0.692373 0.075933
1156 2 0.110778 0.768108 0.0204671
1157 1 0.12084 0.775851 0.00646335
1158 1 0.121117 0.775671 0.0343839
1163 1 0.120956 0.776393 0.0897237
1180 2 0.029398 0.769028 0.0610561
1181 1 0.0381594 0.776669 0.0757356
1182 1 0.0102529 0.776455 0.0617366
1183 2 0.0560258 0.791016 0.0195409
1184 1 0.075043 0.783222 0.0201834
1185 1 0.0471428 0.783452 0.0341917
1441 2 0.0270621 0.874863 0.0621553
1442 1 0.037248 0.867188 0.0481944
1443 1 0.037248 0.867188 0.0761163
1459 2 0.110781 0.87215 0.0214042
1460 1 0.120438 0.865841 0.00672705
1474 2 0.0545539 0.853553 0.0206569
1475 1 0.0555123 0.831883 0.0204734
1476 1 0.0740337 0.859973 0.0206578
1159 2 0.138694 0.788744 0.0617865
1160 1 0.139132 0.810433 0.0619705
1161 1 0.15832 0.782852 0.0619712
1228 2 0.194302 0.769021 0.0619672
1229 1 0.204516 0.776491 0.0479478
1230 1 0.204559 0.77675 0.0758689
1231 2 0.223914 0.789424 0.0212052
1232 1 0.22329 0.811105 0.0208567
1233 1 0.214161 0.783307 0.00652129
1477 2 0.13997 0.851299 0.0621553
1478 1 0.129784 0.858974 0.0761163
1479 1 0.129784 0.858974 0.0481944
1489 2 0.196002 0.87327 0.0621553
1491 1 0.176491 0.86696 0.0621553
1502 1 0.213201 0.86031 0.0899053
1522 2 0.223491 0.851749 0.020657
1523 1 0.213479 0.85968 0.0346179
1524 1 0.213479 0.85968 0.00669599
1204 2 0.279728 0.769699 0.0204724
1206 1 0.260279 0.77622 0.0202894
1207 2 0.307631 0.790542 0.0617903
1208 1 0.297305 0.782918 0.0478879
1209 1 0.297349 0.783177 0.075809
1276 2 0.362616 0.769025 0.0610549
1277 1 0.37147 0.776676 0.0756894
1278 1 0.343489 0.776494 0.0618018
1507 2 0.278467 0.873965 0.0197333
1508 1 0.259367 0.86642 0.0204909
1509 1 0.287393 0.866245 0.034311
1511 1 0.287393 0.866471 0.0899996
1525 2 0.304442 0.852897 0.0621553
1526 1 0.305637 0.831239 0.0621553
1527 1 0.323851 0.859557 0.0621553
1537 2 0.360915 0.873269 0.0630682
1538 1 0.370613 0.866763 0.048468
1252 2 0.444637 0.76971 0.019548
1254 1 0.454452 0.776039 0.0341411
1255 2 0.472549 0.790555 0.0610462
1256 1 0.49167 0.78307 0.0618173
1257 1 0.463638 0.782827 0.0756278
1279 2 0.389451 0.791016 0.0195409
1280 1 0.380568 0.783452 0.0341917
1281 1 0.408469 0.783222 0.0201834
1550 1 0.380062 0.859925 0.0898141
1555 2 0.445271 0.873959 0.0197335
1556 1 0.45409 0.866241 0.0343605
1557 1 0.426132 0.866517 0.0204382
1570 2 0.389667 0.853553 0.0215725
1571 1 0.380115 0.859965 0.00687345
1572 1 0.389493 0.831885 0.0207137
1573 2 0.472763 0.852891 0.0614153
1574 1 0.462948 0.859219 0.0760083
1575 1 0.472539 0.831217 0.0621718
1444 2 0.112482 0.934704 0.0195483
1445 1 0.0934942 0.942586 0.0201298
1446 1 0.121402 0.942428 0.0341272
1451 1 0.121377 0.94261 0.0897018
1458 1 0.0475856 0.950624 0.0894696
1461 1 0.111248 0.893826 0.0207885
1468 2 0.0281199 0.937417 0.0627129
1469 1 0.0283422 0.915735 0.0621466
1470 1 0.0379629 0.943551 0.0480789
1471 2 0.0573053 0.956015 0.0212023
1472 1 0.0564961 0.977689 0.0208937
1473 1 0.0475616 0.949843 0.00652913
83 1 0.22263 0.998519 0.0206406
1447 2 0.138694 0.955331 0.0617865
1448 1 0.139132 0.97702 0.0619705
1449 1 0.15832 0.94944 0.0619712
1490 1 0.195152 0.894946 0.0621553
1516 2 0.194296 0.935831 0.0619642
1517 1 0.204622 0.943382 0.0758929
1518 1 0.204543 0.943325 0.0479711
1519 2 0.222654 0.95781 0.0212032
1520 1 0.241668 0.950007 0.0205584
1521 1 0.213815 0.950395 0.00648173
86 1 0.305911 0.998045 0.0622947
1492 2 0.278031 0.936298 0.019548
1493 1 0.278255 0.914624 0.0203045
1494 1 0.287846 0.942626 0.0341411
1495 2 0.305736 0.957143 0.0610417
1496 1 0.324864 0.949677 0.0617837
1497 1 0.296924 0.949603 0.0757331
1539 1 0.361548 0.894935 0.0623419
1564 2 0.360903 0.935831 0.0619642
1565 1 0.371228 0.943382 0.0758929
1566 1 0.371149 0.943325 0.0479711
135 1 0.472584 0.99803 0.0620998
1540 2 0.446347 0.936297 0.0204726
1541 1 0.445253 0.914633 0.0204723
1542 1 0.42691 0.942856 0.0202877
1543 2 0.474254 0.957141 0.0617902
1544 1 0.46404 0.949671 0.0758096
1545 1 0.463996 0.949412 0.0478884
1567 2 0.39052 0.956012 0.0212052
1568 1 0.389896 0.977692 0.0208567
1569 1 0.380767 0.949895 0.00652129
10 2 0.112482 0.101774 0.104385
11 1 0.0934862 0.109617 0.103675
13 2 0.056247 0.020634 0.102914
14 1 0.0464319 0.0269625 0.117507
16 2 0.0573062 0.123078 0.104201
22 2 0.112482 0.0392198 0.103654
23 1 0.11173 0.0608999 0.103654
24 1 0.0929424 0.0330093 0.103654
25 2 0.0294035 0.102897 0.145891
26 1 0.0381156 0.110384 0.131137
27 1 0.0102095 0.110169 0.145136
46 2 0.0276903 0.0403299 0.144405
47 1 0.0373269 0.0338661 0.159048
48 1 0.028395 0.0619971 0.145054
1732 2 0.112473 0.101322 0.187937
1733 1 0.121378 0.10899 0.173332
1734 1 0.0934543 0.109114 0.187306
1747 2 0.110786 0.0387577 0.188127
1748 1 0.111237 0.0604351 0.187535
1749 1 0.120357 0.0324813 0.173398
1759 2 0.0577436 0.124435 0.187013
1761 1 0.0474972 0.116941 0.17302
1762 2 0.0545501 0.0201821 0.187388
1764 1 0.0740003 0.0267031 0.187388
40 2 0.139342 0.0199559 0.146084
42 1 0.129684 0.0262508 0.131403
43 2 0.139124 0.124207 0.145709
44 1 0.130349 0.116464 0.131071
45 1 0.158321 0.116943 0.144967
61 2 0.22179 0.0190349 0.10291
62 1 0.240917 0.0265241 0.103499
63 1 0.21305 0.026797 0.117557
64 2 0.223916 0.123079 0.104206
73 2 0.194291 0.10289 0.144971
74 1 0.204604 0.110205 0.15899
75 1 0.204649 0.110465 0.131069
94 2 0.196002 0.0403335 0.145152
95 1 0.176491 0.0340228 0.145152
96 1 0.195152 0.0620095 0.145152
1807 2 0.222208 0.122629 0.187019
1808 1 0.241738 0.116381 0.187019
1810 2 0.22179 0.0185816 0.188132
1811 1 0.240917 0.0260708 0.187543
1812 1 0.21305 0.0263437 0.173485
58 2 0.279099 0.101775 0.10256
59 1 0.288052 0.109368 0.117169
60 1 0.260114 0.109656 0.103218
70 2 0.277394 0.0392138 0.104575
71 1 0.278041 0.060878 0.103824
88 2 0.304876 0.0183574 0.146075
89 1 0.323841 0.0263017 0.145509
90 1 0.295942 0.0260728 0.1315
91 2 0.305308 0.122401 0.144968
93 1 0.324906 0.116401 0.144968
121 2 0.361551 0.104482 0.145885
122 1 0.361758 0.0827986 0.145343
123 1 0.371306 0.110585 0.131199
142 2 0.360478 0.0419344 0.145162
143 1 0.370484 0.0340076 0.159127
144 1 0.370597 0.0341468 0.131206
1780 2 0.277398 0.101316 0.187019
1781 1 0.287584 0.108991 0.173058
1795 2 0.277395 0.0387609 0.188124
1796 1 0.278032 0.0604345 0.187571
1797 1 0.286958 0.0324312 0.173406
106 2 0.445705 0.101775 0.10256
107 1 0.42672 0.109656 0.103218
108 1 0.454658 0.109368 0.117169
109 2 0.389673 0.020634 0.104578
112 2 0.390524 0.123075 0.104209
118 2 0.445702 0.0392135 0.103654
119 1 0.426132 0.0331115 0.103654
120 1 0.445056 0.0608975 0.103654
136 2 0.473204 0.0183458 0.145333
137 1 0.463057 0.0261528 0.1314
138 1 0.463023 0.0259532 0.159321
139 2 0.471915 0.122401 0.144968
141 1 0.491513 0.116401 0.144968
1828 2 0.445701 0.101316 0.187938
1829 1 0.454713 0.108986 0.173382
1830 1 0.426723 0.109213 0.187255
1843 2 0.443998 0.0387618 0.186464
1844 1 0.444642 0.0604349 0.187026
1855 2 0.391153 0.124424 0.187013
1857 1 0.380839 0.117034 0.17302
1858 2 0.387955 0.0201863 0.187388
1860 1 0.407426 0.026637 0.187387
18 1 0.0564886 0.144746 0.103694
301 2 0.0551773 0.185623 0.102914
302 1 0.0742968 0.193132 0.103532
303 1 0.046339 0.19357 0.117451
310 2 0.110782 0.205803 0.102909
311 1 0.111436 0.227476 0.103486
312 1 0.120433 0.19944 0.117575
334 2 0.0276924 0.206937 0.144408
335 1 0.0283457 0.228609 0.144984
336 1 0.0373425 0.200574 0.159073
2035 2 0.110782 0.205564 0.18646
2037 1 0.111437 0.227236 0.187034
2050 2 0.0545539 0.186977 0.187388
2051 1 0.0555123 0.165307 0.187205
2052 1 0.0740337 0.193397 0.187389
65 1 0.223088 0.144746 0.103684
328 2 0.139336 0.186755 0.144414
329 1 0.129744 0.192876 0.159176
330 1 0.139121 0.165072 0.144969
349 2 0.221789 0.185626 0.102915
350 1 0.240927 0.193091 0.103467
351 1 0.213044 0.193564 0.117497
382 2 0.196002 0.206934 0.145152
383 1 0.176491 0.200621 0.145152
384 1 0.19515 0.22861 0.145152
1809 1 0.222997 0.144308 0.187019
2098 2 0.221789 0.185173 0.188126
2099 1 0.213044 0.193111 0.173545
2100 1 0.240927 0.192638 0.187575
92 1 0.305854 0.144088 0.144968
358 2 0.277396 0.205808 0.104572
360 1 0.277993 0.227477 0.103895
376 2 0.306577 0.184949 0.145337
377 1 0.296391 0.192625 0.159297
378 1 0.296391 0.192625 0.131376
430 2 0.362622 0.206936 0.145152
431 1 0.361733 0.22861 0.145152
432 1 0.343122 0.200586 0.145152
2083 2 0.277392 0.205563 0.186465
2084 1 0.278037 0.227236 0.187024
114 1 0.389881 0.144748 0.103647
140 1 0.47246 0.144088 0.144968
397 2 0.390103 0.185622 0.103835
399 1 0.38002 0.193609 0.117735
406 2 0.445702 0.205801 0.103654
407 1 0.426132 0.199699 0.103654
408 1 0.445056 0.227485 0.103654
424 2 0.473199 0.184937 0.145337
425 1 0.463085 0.19272 0.159297
426 1 0.463085 0.19272 0.131376
2117 1 0.445252 0.248046 0.187203
2131 2 0.445275 0.207161 0.18646
2133 1 0.426147 0.199672 0.187049
2146 2 0.389676 0.186981 0.188133
2147 1 0.389441 0.165308 0.187364
2148 1 0.380025 0.193331 0.173465
298 2 0.112482 0.268361 0.104385
299 1 0.0934862 0.276205 0.103675
304 2 0.0573064 0.289879 0.1042
305 1 0.0564858 0.311547 0.103697
313 2 0.02769 0.269481 0.144974
314 1 0.0379364 0.276975 0.158967
315 1 0.0380155 0.277033 0.131046
589 2 0.0551813 0.352212 0.104578
591 1 0.0743017 0.359697 0.103807
598 2 0.110784 0.372604 0.10458
623 1 0.00979739 0.367388 0.145509
624 1 0.0376971 0.367617 0.1315
2020 2 0.110772 0.268115 0.187024
2021 1 0.120942 0.27571 0.173024
2047 2 0.0555905 0.289417 0.187019
2048 1 0.0751223 0.283178 0.187019
2049 1 0.0563709 0.311096 0.187019
2323 2 0.111849 0.373742 0.188124
2324 1 0.0927137 0.366292 0.187407
2325 1 0.120603 0.366279 0.173381
2338 2 0.0568768 0.351766 0.187386
2339 1 0.046949 0.359632 0.173356
331 2 0.140403 0.289207 0.145709
332 1 0.130584 0.2829 0.131112
333 1 0.139528 0.310877 0.145303
352 2 0.224344 0.291472 0.10346
354 1 0.214051 0.283944 0.117415
361 2 0.196004 0.269489 0.144232
362 1 0.204759 0.276952 0.158975
363 1 0.176869 0.276939 0.144949
616 2 0.138264 0.35175 0.146084
617 1 0.129381 0.359315 0.131433
618 1 0.157281 0.359545 0.145441
637 2 0.222859 0.354024 0.104586
638 1 0.222811 0.332352 0.103777
670 2 0.194302 0.37353 0.146076
672 1 0.203938 0.367072 0.131431
2095 2 0.223915 0.289429 0.186101
2096 1 0.223317 0.311098 0.186776
2386 2 0.223491 0.35176 0.187381
2387 1 0.213518 0.359661 0.173388
346 2 0.279099 0.268362 0.10256
347 1 0.260114 0.276244 0.103218
348 1 0.288052 0.275955 0.117169
379 2 0.305934 0.290792 0.144049
380 1 0.297123 0.283118 0.158695
381 1 0.325119 0.283501 0.144833
409 2 0.360919 0.269493 0.144974
410 1 0.371233 0.276882 0.158967
411 1 0.371312 0.276939 0.131045
646 2 0.278471 0.374208 0.102909
647 1 0.259382 0.366614 0.103551
648 1 0.287317 0.366443 0.117507
664 2 0.304446 0.353342 0.145336
665 1 0.305541 0.331679 0.145153
666 1 0.323885 0.359902 0.145336
719 1 0.370456 0.367431 0.159152
720 1 0.370533 0.36737 0.13123
2068 2 0.279104 0.268117 0.186272
2069 1 0.260087 0.275911 0.186915
2371 2 0.278465 0.373745 0.188123
2372 1 0.25935 0.366234 0.187419
2373 1 0.287233 0.366289 0.173384
394 2 0.443998 0.268352 0.103472
396 1 0.454217 0.276052 0.117406
400 2 0.389451 0.291477 0.104211
402 1 0.408479 0.283707 0.103607
427 2 0.473616 0.289209 0.144041
428 1 0.463995 0.282651 0.158663
429 1 0.472959 0.310872 0.144807
685 2 0.389673 0.354023 0.104578
686 1 0.389446 0.332349 0.103822
694 2 0.445271 0.374197 0.104577
696 1 0.426132 0.366755 0.103872
712 2 0.471689 0.35175 0.146084
713 1 0.462806 0.359315 0.131433
714 1 0.490707 0.359545 0.145441
2116 2 0.446348 0.269708 0.187019
2118 1 0.426909 0.276268 0.18702
2143 2 0.390521 0.289429 0.186101
2144 1 0.389923 0.311098 0.186776
2419 2 0.444004 0.372161 0.188119
2420 1 0.45373 0.365849 0.173476
2434 2 0.388399 0.351766 0.18647
2435 1 0.407548 0.359183 0.187138
586 2 0.11078 0.435162 0.103469
588 1 0.121066 0.442685 0.11743
592 2 0.0555904 0.456471 0.103469
593 1 0.0563728 0.478149 0.103469
594 1 0.0751216 0.450229 0.103469
599 1 0.111442 0.394267 0.103815
601 2 0.0281276 0.43788 0.145883
602 1 0.0285202 0.416198 0.145379
603 1 0.0378751 0.444037 0.131207
622 2 0.028763 0.375333 0.146075
2308 2 0.112922 0.436308 0.187019
2309 1 0.111827 0.414646 0.187205
2310 1 0.093483 0.442868 0.187019
2335 2 0.057311 0.456028 0.187758
2336 1 0.0474793 0.449823 0.173138
2337 1 0.056487 0.477702 0.187427
619 2 0.139126 0.457599 0.144053
620 1 0.130364 0.449958 0.158732
621 1 0.158271 0.450172 0.144733
640 2 0.223916 0.45648 0.104206
641 1 0.223088 0.478148 0.103684
649 2 0.194302 0.436073 0.144971
650 1 0.204559 0.443802 0.13107
651 1 0.204516 0.443543 0.158991
671 1 0.19491 0.395198 0.145385
905 1 0.138932 0.498293 0.145151
2383 2 0.222208 0.45603 0.187019
2384 1 0.222997 0.477709 0.187019
2385 1 0.241738 0.449783 0.187019
634 2 0.279728 0.436764 0.103469
635 1 0.278671 0.415098 0.103469
636 1 0.260277 0.443285 0.103469
667 2 0.305943 0.457607 0.145708
668 1 0.325063 0.450122 0.144937
669 1 0.297032 0.449879 0.131126
697 2 0.361546 0.437882 0.144226
698 1 0.371389 0.444015 0.15886
699 1 0.361768 0.416199 0.144792
718 2 0.360483 0.375331 0.145159
953 1 0.305916 0.498477 0.145006
2356 2 0.278033 0.43631 0.18794
2357 1 0.287598 0.442626 0.173219
2358 1 0.278249 0.414635 0.187195
682 2 0.444643 0.436764 0.102553
683 1 0.44485 0.415089 0.103286
684 1 0.454371 0.443061 0.117199
688 2 0.389461 0.458281 0.102551
689 1 0.380449 0.450612 0.117106
690 1 0.408439 0.450385 0.103233
715 2 0.473615 0.455803 0.144044
716 1 0.473007 0.477472 0.144735
717 1 0.463979 0.449346 0.158689
974 1 0.388845 0.498948 0.103652
2404 2 0.445705 0.434712 0.186281
2406 1 0.426739 0.442657 0.186847
2421 1 0.444632 0.393836 0.187581
2431 2 0.390521 0.456029 0.186101
2432 1 0.389924 0.477698 0.186778
874 2 0.111221 0.603556 0.102559
875 1 0.111568 0.581877 0.103177
876 1 0.120956 0.609806 0.117215
877 2 0.0568802 0.519031 0.103831
879 1 0.0466554 0.526735 0.11776
880 2 0.0555944 0.623065 0.103469
882 1 0.0751543 0.616926 0.103469
886 2 0.111849 0.541016 0.10291
887 1 0.0927217 0.533527 0.103499
888 1 0.120588 0.533254 0.117557
889 2 0.0281277 0.604481 0.145882
890 1 0.0285195 0.582798 0.145381
891 1 0.0378754 0.610635 0.131206
910 2 0.0287689 0.541924 0.144411
911 1 0.0376592 0.534184 0.158997
912 1 0.00974117 0.534154 0.145014
2596 2 0.112473 0.601311 0.187937
2597 1 0.0934543 0.609103 0.187306
2598 1 0.121378 0.608978 0.173332
2611 2 0.110786 0.538746 0.188127
2612 1 0.120357 0.53247 0.173398
2613 1 0.111237 0.560424 0.187535
2623 2 0.0573134 0.622823 0.18776
2625 1 0.0474936 0.616517 0.173163
2626 2 0.0551813 0.518572 0.186464
2628 1 0.0743017 0.526057 0.187235
904 2 0.137631 0.519942 0.145337
906 1 0.157006 0.526711 0.145336
907 2 0.13869 0.62259 0.144968
909 1 0.158291 0.6166 0.144968
925 2 0.221793 0.519029 0.104577
926 1 0.240932 0.52647 0.103872
928 2 0.223916 0.623067 0.104206
937 2 0.194291 0.602879 0.144971
938 1 0.204604 0.610194 0.15899
939 1 0.204649 0.610454 0.131069
958 2 0.1943 0.540324 0.146079
959 1 0.194958 0.561987 0.145313
960 1 0.203922 0.533766 0.131456
2671 2 0.222851 0.624414 0.186104
2673 1 0.241825 0.616508 0.186801
2674 2 0.22179 0.51857 0.188132
2675 1 0.21305 0.526332 0.173485
2676 1 0.240917 0.526059 0.187543
922 2 0.279098 0.601759 0.104384
923 1 0.260125 0.609666 0.103688
934 2 0.277392 0.539204 0.102914
935 1 0.278036 0.560877 0.103476
936 1 0.287205 0.532858 0.117504
952 2 0.305944 0.520159 0.144411
954 1 0.296346 0.526227 0.159184
955 2 0.305937 0.624198 0.145711
956 1 0.325116 0.616891 0.144902
957 1 0.29707 0.616447 0.131117
985 2 0.361551 0.604484 0.145885
986 1 0.361756 0.5828 0.145344
987 1 0.371307 0.610584 0.131198
1006 2 0.362179 0.541918 0.146078
1007 1 0.370962 0.534181 0.131442
1008 1 0.343111 0.534253 0.145525
2644 2 0.277398 0.601304 0.187019
2645 1 0.287584 0.60898 0.173058
2659 2 0.277392 0.53875 0.186464
2660 1 0.278036 0.560424 0.187026
970 2 0.443998 0.601754 0.103472
971 1 0.454217 0.609453 0.117406
973 2 0.387959 0.520621 0.103838
975 1 0.407458 0.526971 0.103653
976 2 0.389457 0.624874 0.104208
978 1 0.408423 0.616929 0.103642
982 2 0.444 0.539202 0.104575
983 1 0.444648 0.560867 0.103824
1000 2 0.471695 0.518346 0.146075
1001 1 0.490661 0.52629 0.145509
1002 1 0.462761 0.526061 0.1315
1003 2 0.472546 0.62419 0.14405
1004 1 0.463827 0.616525 0.158741
1005 1 0.491749 0.616942 0.144768
2692 2 0.446348 0.60311 0.187019
2693 1 0.426909 0.609669 0.18702
2694 1 0.445252 0.581447 0.187203
2707 2 0.445274 0.540556 0.188124
2708 1 0.454029 0.533093 0.173381
2709 1 0.426139 0.533106 0.187407
2719 2 0.391153 0.624412 0.187013
2721 1 0.380839 0.617023 0.17302
2722 2 0.390103 0.51857 0.187378
2723 1 0.380096 0.526497 0.173413
881 1 0.0562764 0.644747 0.103469
1164 1 0.111568 0.748465 0.103761
1165 2 0.0568746 0.685622 0.103834
1166 1 0.046718 0.693502 0.117736
1174 2 0.111846 0.707594 0.104571
1176 1 0.0926966 0.700177 0.103904
1198 2 0.0276924 0.706925 0.144408
1199 1 0.0373425 0.700562 0.159073
1200 1 0.0283457 0.728598 0.144984
2624 1 0.0564347 0.644492 0.187358
2886 1 0.111614 0.748035 0.18724