356
	Energy: 130226241415155980000000000000000000000.0000000
H          7.55465       11.96600        6.48341
H          8.00265       11.47339        7.90064
O          7.87399       12.29373        7.36138
O          9.00152        0.65361       17.02432
H          8.63374        1.53545       16.76509
H          9.57900        0.84566       17.80535
O         15.25333        3.08629       14.94776
H         15.08989        3.12956       15.92336
H         14.35214        2.98951       14.54951
O          4.24133        7.64323        8.84717
H          4.20142        8.48610        9.36486
H          5.17424        7.32980        8.95504
O         13.41177       13.00145        7.68832
H         13.78854       12.61916        8.52034
H         13.18602       12.21347        7.13277
O          7.37732        2.96520       20.20375
H          7.58489        2.39283       19.42281
H          7.20505        3.86017       19.81691
O         12.83019        4.57000        6.15355
H         12.97451        5.54002        6.01814
H         12.67444        4.47606        7.12666
O          2.66167       11.27771       13.35918
H          3.11135       11.99326       13.87513
H          2.32132       10.65285       14.04779
O         10.95017        0.37897        9.51003
H         10.52862        1.22598        9.21852
H         11.22601        0.54915       10.44562
O         16.84836        9.03138       16.59832
H         16.19414        8.32803       16.35892
H         16.29834        9.84070       16.74961
O          6.79779        1.13938       14.21742
H          6.35863        0.99434       15.09283
H          7.73020        0.83638       14.35436
O         17.41916       10.87269       10.31044
H         16.83700       11.42343        9.72879
H         17.42962        9.98178        9.87854
O         10.13001        9.52769       18.60199
H         10.88169       10.12227       18.35441
H          9.83460        9.13260       17.74376
O          5.50714        9.80107        6.77402
H          6.10851        9.63152        7.54198
H          6.03921        9.54055        5.98072
O          6.92948        9.06916       21.04838
H          7.72191        9.19165       20.46746
H          6.29214        8.55287       20.49386
O          7.48056        3.59956        5.25267
H          6.88645        3.42736        6.02564
H          8.20647        2.93262        5.34481
O         13.04881       13.46186       13.98446
H         12.54504       12.81378       13.43118
H         13.99420       13.18173       13.89417
O          5.02005        0.93215       10.61385
H          4.45959        1.73225       10.45200
H          5.46932        1.11477       11.47696
O         15.98378        7.47521       10.91303
H         16.05276        8.28738       11.47445
H         15.01267        7.28998       10.86456
O         10.11558       13.16126       18.69764
H          9.46271       12.47793       18.40275
H         10.97404       12.87360       18.29671
O         11.02298        1.54308        6.17539
H         10.85310        2.34510        5.62019
H         11.68893        1.84123        6.84468
O          4.70527        5.53686       19.68669
H          5.01398        5.31189       18.77328
H          5.47404        6.00368       20.10083
O         16.05344        6.79167        5.54528
H         15.37622        7.38510        5.95673
H         15.62485        5.89917        5.53018
O          3.92238        4.74173        6.86228
H          4.65718        5.37464        6.66291
H          3.75734        4.85100        7.83245
O         14.62715        4.48993       18.64907
H         14.55432        5.47742       18.64556
H         13.69032        4.17201       18.69026
O          2.05272        5.15497       14.09830
H          1.97230        5.10081       13.11294
H          2.99630        5.40971       14.25585
O          8.43317       12.66391       10.50906
H          9.01858       11.86653       10.53977
H          8.98050       13.35503       10.05877
O          5.79690       12.73853       12.61627
H          5.84522       12.95164       13.58186
H          5.52348       11.78744       12.58613
O         12.17132        1.30057       13.19084
H         11.22777        1.57527       13.31036
H         12.55628        1.98775       12.59117
O         15.00674        5.64824        8.45397
H         14.28588        6.31167        8.31123
H         14.70002        5.11202        9.22730
O         11.89429       13.83827       10.62098
H         12.85080       13.87139       10.87462
H         11.62757       12.89900       10.78359
O         13.37223        2.54368        9.28102
H         12.69034        2.83571        9.93621
H         14.18400        2.38283        9.82445
O          7.59396       13.33645       16.03690
H          7.69220       12.49655       15.52241
H          8.51762       13.68202       16.12440
O          2.87150        8.05287       12.81307
H          3.14130        8.37483       11.91658
H          3.72170        7.80064       13.25320
O          9.87512        3.73971       18.11070
H          9.32998        4.50588       18.41890
H         10.49631        3.55975       18.86027
O          4.04199        2.64579       13.57345
H          4.72360        3.25508       13.95254
H          3.82259        3.03935       12.69212
O         13.81835        9.01220       18.58215
H         13.10270        8.83192       17.92239
H         14.40717        8.21781       18.53199
O         10.16562        5.97422        4.62729
H          9.29654        6.32534        4.94583
H         10.81030        6.70171        4.81561
O          1.95589        7.81762       16.05793
H          2.65959        8.45659       15.78112
H          2.44602        7.09683       16.52766
O         10.57347       11.50969       15.74239
H         10.84647       11.33867       14.80695
H          9.76718       10.95049       15.87073
O          7.89721        0.61189        7.68899
H          6.99054        0.87018        7.38628
H          8.42706        1.44553        7.62298
O         17.07180        6.66095       13.96731
H         16.85381        5.85170       14.49461
H         16.21227        7.14634       13.89161
O          5.41081       11.48817        9.64553
H          6.21185       10.94971        9.86576
H          4.66417       11.01556       10.09216
O         14.21297        6.17235       15.66251
H         13.96143        6.93526       16.24028
H         13.69948        5.40829       16.02487
O          8.88204        6.14935       21.08141
H          9.34643        6.96972       20.77838
H          9.50826        5.41464       20.86146
O         12.65299        8.84057        5.85392
H         12.35609        9.61771        6.39064
H         12.95563        8.17810        6.52445
O          8.33987        0.55342       11.37589
H          8.89740        1.03564       12.03676
H          8.17955        1.21507       10.65712
O         16.52251       10.49226       13.55096
H         16.04487       11.26855       13.93766
H         15.90500        9.73030       13.68468
O         12.12408        2.27585       16.40356
H         11.26804        2.33057       15.90935
H         12.34136        3.21567       16.62634
O          7.12973        6.80934        6.78270
H          7.40206        7.41461        7.51692
H          7.57284        5.94996        6.99412
O         11.71318        6.39689       18.46946
H         10.78351        6.73599       18.48512
H         11.78390        5.90845       17.61137
O          9.64042       13.75743       13.33071
H          8.66005       13.64824       13.24631
H         10.01619       12.93474       12.92856
O         14.88347        4.56757       12.04392
H         14.04353        4.04807       11.97794
H         14.68393        5.27907       12.70247
O          8.46422        8.96771        9.78819
H          8.30312        9.41562       10.65386
H          9.32792        8.50480        9.91342
O          3.81394        8.73060       18.74974
H          3.65230        9.48616       18.13056
H          4.47104        8.16028       18.27767
O         15.15626        9.66627        7.92734
H         14.28485       10.02251        8.23320
H         15.26680        8.81968        8.42838
O          9.62153        4.05596        7.95807
H          9.79786        4.34523        7.02825
H         10.50976        3.79752        8.30980
O          4.99643       10.15173       15.41434
H          5.61099       10.92709       15.38863
H          5.05061        9.76284       14.50573
O          6.60252        3.58626       16.85767
H          6.23154        3.54652       15.94112
H          7.25310        4.33126       16.82708
O          9.19322        9.50524        5.66195
H          8.72459        9.38624        6.52572
H          9.80296       10.26999        5.81566
O         13.61717       10.44012       15.46676
H         13.27956       10.52932       14.54073
H         13.94213        9.50682       15.52093
O          4.21992        5.05341       10.75911
H          5.17966        5.28227       10.68350
H          3.82494        5.81054       11.25949
O          6.37038        3.28451        8.91624
H          6.29949        4.17360        8.48753
H          7.29403        3.25320        9.27053
O          6.96597       10.95569       18.19428
H          7.62698       10.66401       17.51772
H          6.22452       10.30531       18.11170
O         10.29102        7.12716        7.71876
H         10.57439        8.07089        7.80619
H         11.13612        6.62547        7.60421
O          7.83644        7.24321       18.27172
H          7.07017        7.83013       18.05385
H          7.43724        6.34498       18.38511
O          5.45035        6.55630       16.14137
H          4.81484        5.80272       16.05320
H          5.05352        7.27994       15.59525
O         12.57748        8.45366       10.13927
H         12.71027        8.13596        9.21212
H         11.64454        8.20775       10.35307
O         10.87284       10.77844        8.64869
H         10.67509       11.69241        8.32394
H         11.74095       10.86506        9.11605
O          9.02477        3.48656       14.55120
H          8.26328        4.08999       14.37312
H          9.51072        3.45358       13.69246
O          6.21243        6.26709       13.18049
H          6.96427        5.99783       13.76134
H          5.51125        5.59389       13.36032
O         14.15331       11.19877       11.06849
H         14.02822       11.19428       12.05015
H         14.55917       10.31878       10.86773
O         13.37021        7.87713       13.24652
H         13.67305        8.69476       12.78045
H         12.94376        7.33776       12.53805
O         10.19354        3.31338       11.14425
H          9.71198        4.07695       10.74305
H         10.85297        3.72944       11.75164
O          7.80955        8.76272       15.46593
H          7.34627        8.24305       14.76490
H          8.76893        8.66038       15.25319
O         11.25698       10.38066       12.01708
H         11.42401        9.76409       12.77058
H         10.51300        9.96178       11.51938
O          7.84246        6.00185        9.83430
H          7.46364        6.36772       10.66893
H          8.81287        6.16469        9.90974
O         11.39687        8.15835       15.61915
H         11.13208        8.76820       14.88791
H         11.60341        7.30460       15.16556
O          9.45788        6.03753       16.05091
H          8.72194        6.21550       15.39206
H          8.72194        6.21550       15.39206
O         12.03379        5.53526       10.16177
H         11.11766        5.88777       10.05061
H         12.21060        5.62095       11.12976
O          8.35392       10.65765       13.00720
H          9.07642       10.19696       13.49861
H          7.62334       10.73998       13.66771
O         11.99022        4.51180       14.06538
H         11.34435        4.92882       14.68610
H         12.30736        5.26293       13.50856
O          7.04507        3.52768       12.03216
H          7.64464        4.31353       11.98968
H          7.64464        4.31353       11.98968
O          9.89190        7.09210       12.63430
H          9.00710        7.53690       12.62960
H          9.68330        6.12530       12.68320
O          9.89190        7.09210       12.63430
H          9.00710        7.53690       12.62960
H          9.68330        6.12530       12.68320
O          9.89190        7.09210       12.63430
H          9.00710        7.53690       12.62960
H          9.68330        6.12530       12.68320
O          9.89190        7.09210       12.63430
H          9.00710        7.53690       12.62960
H          9.68330        6.12530       12.68320
O          9.89190        7.09210       12.63430
H          9.00710        7.53690       12.62960
H          9.68330        6.12530       12.68320
O          9.89190        7.09210       12.63430
H          9.00710        7.53690       12.62960
H          9.68330        6.12530       12.68320
O          9.89190        7.09210       12.63430
H          9.00710        7.53690       12.62960
H          9.68330        6.12530       12.68320
O          9.89190        7.09210       12.63430
H          9.00710        7.53690       12.62960
H          9.68330        6.12530       12.68320
O          9.89190        7.09210       12.63430
H          9.00710        7.53690       12.62960
H          9.68330        6.12530       12.68320
O          9.89190        7.09210       12.63430
H          9.00710        7.53690       12.62960
H          9.68330        6.12530       12.68320
O          9.89190        7.09210       12.63430
H          9.00710        7.53690       12.62960
H          9.68330        6.12530       12.68320
O          9.89190        7.09210       12.63430
H          9.00710        7.53690       12.62960
H          9.68330        6.12530       12.68320
O          9.89190        7.09210       12.63430
H          9.00710        7.53690       12.62960
H          9.68330        6.12530       12.68320
O          9.89190        7.09210       12.63430
H          9.00710        7.53690       12.62960
H          9.68330        6.12530       12.68320
O          9.89190        7.09210       12.63430
H          9.00710        7.53690       12.62960
H          9.68330        6.12530       12.68320
O          9.89190        7.09210       12.63430
H          9.00710        7.53690       12.62960
H          9.68330        6.12530       12.68320
O          9.89190        7.09210       12.63430
H          9.00710        7.53690       12.62960
H          9.68330        6.12530       12.68320
O          9.89190        7.09210       12.63430
H          9.00710        7.53690       12.62960
H          9.68330        6.12530       12.68320
O          9.89190        7.09210       12.63430
H          9.00710        7.53690       12.62960
H          9.68330        6.12530       12.68320
O          9.89190        7.09210       12.63430
H          9.00710        7.53690       12.62960
H          9.68330        6.12530       12.68320
O          9.89190        7.09210       12.63430
H          9.00710        7.53690       12.62960
H          9.68330        6.12530       12.68320
O          9.89190        7.09210       12.63430
H          9.00710        7.53690       12.62960
H          9.68330        6.12530       12.68320
O          9.89190        7.09210       12.63430
H          9.00710        7.53690       12.62960
H          9.68330        6.12530       12.68320
O          9.89190        7.09210       12.63430
H          9.00710        7.53690       12.62960
H          9.68330        6.12530       12.68320
O          9.89190        7.09210       12.63430
H          9.00710        7.53690       12.62960
H          9.68330        6.12530       12.68320
O          9.89190        7.09210       12.63430
H          9.00710        7.53690       12.62960
H          9.68330        6.12530       12.68320
O          9.89190        7.09210       12.63430
H          9.00710        7.53690       12.62960
H          9.68330        6.12530       12.68320
O          9.89190        7.09210       12.63430
H          9.00710        7.53690       12.62960
H          9.68330        6.12530       12.68320
O          9.89190        7.09210       12.63430
H          9.00710        7.53690       12.62960
H          9.68330        6.12530       12.68320
O          9.89190        7.09210       12.63430
H          9.00710        7.53690       12.62960
H          9.68330        6.12530       12.68320
O          9.89190        7.09210       12.63430
H          9.00710        7.53690       12.62960
H          9.68330        6.12530       12.68320
O          9.89190        7.09210       12.63430
H          9.00710        7.53690       12.62960
H          9.68330        6.12530       12.68320
O          9.89190        7.09210       12.63430
H          9.00710        7.53690       12.62960
H          9.68330        6.12530       12.68320
O          9.89190        7.09210       12.63430
H          9.00710        7.53690       12.62960
H          9.68330        6.12530       12.68320
O          5.94902        8.95060       11.82035
H          6.16669        8.18948       11.22891
H          6.50865        8.80370       12.62056
Xx         9.60130        7.04244       12.70878
Xx         9.50869        7.01190       12.71341
