LAMMPS (15 Apr 2020)
  using 8 OpenMP thread(s) per MPI task
# input file
variable       Ts equal 300.0
variable       Ts_end equal 500.0
variable       dt equal 2.0
variable       Tdamp equal 100*dt

variable       spring_factor equal 67.6425

variable       epl_CuCu equal 4.72
variable       sigma_CuCu equal 1.9297
variable       epl_OO equal 0.15535
variable       sigma_OO equal 3.166
variable       epl_CuO equal sqrt(${epl_CuCu}*${epl_OO})
variable       epl_CuO equal sqrt(4.72*${epl_OO})
variable       epl_CuO equal sqrt(4.72*0.15535)
variable       sigma_CuO equal (${sigma_OO}+${sigma_CuCu})/2
variable       sigma_CuO equal (3.166+${sigma_CuCu})/2
variable       sigma_CuO equal (3.166+1.9297)/2

# ----------------- Initialize Simulation ---------------------
units          real
dimension      3
boundary       p p f
processors     * * 1
atom_style     full
bond_style     harmonic
angle_style    harmonic

read_data      system.data
ERROR on proc 0: Unexpected end of data file (../read_data.cpp:959)
Last command: read_data      system.data
